file 37221402 1409266153                                        
version 2
run ETX-0-20140828-19:23:23-29530
attr configname ETX
attr datetime 20140828-19:23:23
attr experiment ETX
attr inifile omnetpp.ini
attr iterationvars ""
attr iterationvars2 $repetition=0
attr measurement ""
attr network ncorp_inetmanet.simulations.rede10.Net80211_aodv
attr processid 29530
attr repetition 0
attr replication #0
attr resultdir results
attr runnumber 0
attr seedset 0

vector 15  Net80211_aodv.fixhost[0].wlan[0].mgmt  dataQueueLen:vector  ETV
attr interpolationmode  sample-hold
attr title  "data queue length, vector"
vector 40  Net80211_aodv.host[0].wlan[0].mgmt  dataQueueLen:vector  ETV
attr interpolationmode  sample-hold
attr title  "data queue length, vector"
vector 65  Net80211_aodv.host[1].wlan[0].mgmt  dataQueueLen:vector  ETV
attr interpolationmode  sample-hold
attr title  "data queue length, vector"
vector 90  Net80211_aodv.host[2].wlan[0].mgmt  dataQueueLen:vector  ETV
attr interpolationmode  sample-hold
attr title  "data queue length, vector"
vector 115  Net80211_aodv.host[3].wlan[0].mgmt  dataQueueLen:vector  ETV
attr interpolationmode  sample-hold
attr title  "data queue length, vector"
vector 140  Net80211_aodv.host[4].wlan[0].mgmt  dataQueueLen:vector  ETV
attr interpolationmode  sample-hold
attr title  "data queue length, vector"
vector 165  Net80211_aodv.host[5].wlan[0].mgmt  dataQueueLen:vector  ETV
attr interpolationmode  sample-hold
attr title  "data queue length, vector"
vector 190  Net80211_aodv.host[6].wlan[0].mgmt  dataQueueLen:vector  ETV
attr interpolationmode  sample-hold
attr title  "data queue length, vector"
vector 215  Net80211_aodv.host[7].wlan[0].mgmt  dataQueueLen:vector  ETV
attr interpolationmode  sample-hold
attr title  "data queue length, vector"
vector 240  Net80211_aodv.host[8].wlan[0].mgmt  dataQueueLen:vector  ETV
attr interpolationmode  sample-hold
attr title  "data queue length, vector"
vector 265  Net80211_aodv.host[9].wlan[0].mgmt  dataQueueLen:vector  ETV
attr interpolationmode  sample-hold
attr title  "data queue length, vector"
vector 276  Net80211_aodv.fixhost[0].wlan[0].mac  RadioState  ETV
attr enum  "IDLE=0, OFF=4, RECV=1, SLEEP=3, TRANSMIT=2"
attr enumname  RadioState
vector 275  Net80211_aodv.fixhost[0].wlan[0].mac  State  ETV
attr enum  "BACKOFF=3, DEFER=1, IDLE=0, RECEIVE=8, WAITACK=4, WAITAIFS=2, WAITCTS=6, WAITMULTICAST=5, WAITSIFS=7"
attr enumname  Ieee80211Mac
vector 282  Net80211_aodv.host[0].wlan[0].mac  RadioState  ETV
attr enum  "IDLE=0, OFF=4, RECV=1, SLEEP=3, TRANSMIT=2"
attr enumname  RadioState
vector 281  Net80211_aodv.host[0].wlan[0].mac  State  ETV
attr enum  "BACKOFF=3, DEFER=1, IDLE=0, RECEIVE=8, WAITACK=4, WAITAIFS=2, WAITCTS=6, WAITMULTICAST=5, WAITSIFS=7"
attr enumname  Ieee80211Mac
vector 288  Net80211_aodv.host[1].wlan[0].mac  RadioState  ETV
attr enum  "IDLE=0, OFF=4, RECV=1, SLEEP=3, TRANSMIT=2"
attr enumname  RadioState
vector 287  Net80211_aodv.host[1].wlan[0].mac  State  ETV
attr enum  "BACKOFF=3, DEFER=1, IDLE=0, RECEIVE=8, WAITACK=4, WAITAIFS=2, WAITCTS=6, WAITMULTICAST=5, WAITSIFS=7"
attr enumname  Ieee80211Mac
vector 294  Net80211_aodv.host[2].wlan[0].mac  RadioState  ETV
attr enum  "IDLE=0, OFF=4, RECV=1, SLEEP=3, TRANSMIT=2"
attr enumname  RadioState
vector 293  Net80211_aodv.host[2].wlan[0].mac  State  ETV
attr enum  "BACKOFF=3, DEFER=1, IDLE=0, RECEIVE=8, WAITACK=4, WAITAIFS=2, WAITCTS=6, WAITMULTICAST=5, WAITSIFS=7"
attr enumname  Ieee80211Mac
vector 300  Net80211_aodv.host[3].wlan[0].mac  RadioState  ETV
attr enum  "IDLE=0, OFF=4, RECV=1, SLEEP=3, TRANSMIT=2"
attr enumname  RadioState
vector 299  Net80211_aodv.host[3].wlan[0].mac  State  ETV
attr enum  "BACKOFF=3, DEFER=1, IDLE=0, RECEIVE=8, WAITACK=4, WAITAIFS=2, WAITCTS=6, WAITMULTICAST=5, WAITSIFS=7"
attr enumname  Ieee80211Mac
vector 306  Net80211_aodv.host[4].wlan[0].mac  RadioState  ETV
attr enum  "IDLE=0, OFF=4, RECV=1, SLEEP=3, TRANSMIT=2"
attr enumname  RadioState
vector 305  Net80211_aodv.host[4].wlan[0].mac  State  ETV
attr enum  "BACKOFF=3, DEFER=1, IDLE=0, RECEIVE=8, WAITACK=4, WAITAIFS=2, WAITCTS=6, WAITMULTICAST=5, WAITSIFS=7"
attr enumname  Ieee80211Mac
vector 312  Net80211_aodv.host[5].wlan[0].mac  RadioState  ETV
attr enum  "IDLE=0, OFF=4, RECV=1, SLEEP=3, TRANSMIT=2"
attr enumname  RadioState
vector 311  Net80211_aodv.host[5].wlan[0].mac  State  ETV
attr enum  "BACKOFF=3, DEFER=1, IDLE=0, RECEIVE=8, WAITACK=4, WAITAIFS=2, WAITCTS=6, WAITMULTICAST=5, WAITSIFS=7"
attr enumname  Ieee80211Mac
vector 318  Net80211_aodv.host[6].wlan[0].mac  RadioState  ETV
attr enum  "IDLE=0, OFF=4, RECV=1, SLEEP=3, TRANSMIT=2"
attr enumname  RadioState
vector 317  Net80211_aodv.host[6].wlan[0].mac  State  ETV
attr enum  "BACKOFF=3, DEFER=1, IDLE=0, RECEIVE=8, WAITACK=4, WAITAIFS=2, WAITCTS=6, WAITMULTICAST=5, WAITSIFS=7"
attr enumname  Ieee80211Mac
vector 324  Net80211_aodv.host[7].wlan[0].mac  RadioState  ETV
attr enum  "IDLE=0, OFF=4, RECV=1, SLEEP=3, TRANSMIT=2"
attr enumname  RadioState
vector 323  Net80211_aodv.host[7].wlan[0].mac  State  ETV
attr enum  "BACKOFF=3, DEFER=1, IDLE=0, RECEIVE=8, WAITACK=4, WAITAIFS=2, WAITCTS=6, WAITMULTICAST=5, WAITSIFS=7"
attr enumname  Ieee80211Mac
vector 330  Net80211_aodv.host[8].wlan[0].mac  RadioState  ETV
attr enum  "IDLE=0, OFF=4, RECV=1, SLEEP=3, TRANSMIT=2"
attr enumname  RadioState
vector 329  Net80211_aodv.host[8].wlan[0].mac  State  ETV
attr enum  "BACKOFF=3, DEFER=1, IDLE=0, RECEIVE=8, WAITACK=4, WAITAIFS=2, WAITCTS=6, WAITMULTICAST=5, WAITSIFS=7"
attr enumname  Ieee80211Mac
vector 336  Net80211_aodv.host[9].wlan[0].mac  RadioState  ETV
attr enum  "IDLE=0, OFF=4, RECV=1, SLEEP=3, TRANSMIT=2"
attr enumname  RadioState
vector 335  Net80211_aodv.host[9].wlan[0].mac  State  ETV
attr enum  "BACKOFF=3, DEFER=1, IDLE=0, RECEIVE=8, WAITACK=4, WAITAIFS=2, WAITCTS=6, WAITMULTICAST=5, WAITSIFS=7"
attr enumname  Ieee80211Mac
vector 21  Net80211_aodv.fixhost[0].wlan[0].radio  bitrate:vector  ETV
attr interpolationmode  sample-hold
attr title  "tx bitrate, vector"
attr unit  bps
vector 23  Net80211_aodv.fixhost[0].wlan[0].radio  radioState:vector  ETV
attr interpolationmode  sample-hold
attr title  "radio state (enum), vector"
vector 22  Net80211_aodv.fixhost[0].wlan[0].radio  channelNo:vector  ETV
attr interpolationmode  sample-hold
attr title  "channel no, vector"
vector 46  Net80211_aodv.host[0].wlan[0].radio  bitrate:vector  ETV
attr interpolationmode  sample-hold
attr title  "tx bitrate, vector"
attr unit  bps
vector 48  Net80211_aodv.host[0].wlan[0].radio  radioState:vector  ETV
attr interpolationmode  sample-hold
attr title  "radio state (enum), vector"
vector 47  Net80211_aodv.host[0].wlan[0].radio  channelNo:vector  ETV
attr interpolationmode  sample-hold
attr title  "channel no, vector"
vector 71  Net80211_aodv.host[1].wlan[0].radio  bitrate:vector  ETV
attr interpolationmode  sample-hold
attr title  "tx bitrate, vector"
attr unit  bps
vector 73  Net80211_aodv.host[1].wlan[0].radio  radioState:vector  ETV
attr interpolationmode  sample-hold
attr title  "radio state (enum), vector"
vector 72  Net80211_aodv.host[1].wlan[0].radio  channelNo:vector  ETV
attr interpolationmode  sample-hold
attr title  "channel no, vector"
vector 96  Net80211_aodv.host[2].wlan[0].radio  bitrate:vector  ETV
attr interpolationmode  sample-hold
attr title  "tx bitrate, vector"
attr unit  bps
vector 98  Net80211_aodv.host[2].wlan[0].radio  radioState:vector  ETV
attr interpolationmode  sample-hold
attr title  "radio state (enum), vector"
vector 97  Net80211_aodv.host[2].wlan[0].radio  channelNo:vector  ETV
attr interpolationmode  sample-hold
attr title  "channel no, vector"
vector 121  Net80211_aodv.host[3].wlan[0].radio  bitrate:vector  ETV
attr interpolationmode  sample-hold
attr title  "tx bitrate, vector"
attr unit  bps
vector 123  Net80211_aodv.host[3].wlan[0].radio  radioState:vector  ETV
attr interpolationmode  sample-hold
attr title  "radio state (enum), vector"
vector 122  Net80211_aodv.host[3].wlan[0].radio  channelNo:vector  ETV
attr interpolationmode  sample-hold
attr title  "channel no, vector"
vector 146  Net80211_aodv.host[4].wlan[0].radio  bitrate:vector  ETV
attr interpolationmode  sample-hold
attr title  "tx bitrate, vector"
attr unit  bps
vector 148  Net80211_aodv.host[4].wlan[0].radio  radioState:vector  ETV
attr interpolationmode  sample-hold
attr title  "radio state (enum), vector"
vector 147  Net80211_aodv.host[4].wlan[0].radio  channelNo:vector  ETV
attr interpolationmode  sample-hold
attr title  "channel no, vector"
vector 171  Net80211_aodv.host[5].wlan[0].radio  bitrate:vector  ETV
attr interpolationmode  sample-hold
attr title  "tx bitrate, vector"
attr unit  bps
vector 173  Net80211_aodv.host[5].wlan[0].radio  radioState:vector  ETV
attr interpolationmode  sample-hold
attr title  "radio state (enum), vector"
vector 172  Net80211_aodv.host[5].wlan[0].radio  channelNo:vector  ETV
attr interpolationmode  sample-hold
attr title  "channel no, vector"
vector 196  Net80211_aodv.host[6].wlan[0].radio  bitrate:vector  ETV
attr interpolationmode  sample-hold
attr title  "tx bitrate, vector"
attr unit  bps
vector 198  Net80211_aodv.host[6].wlan[0].radio  radioState:vector  ETV
attr interpolationmode  sample-hold
attr title  "radio state (enum), vector"
vector 197  Net80211_aodv.host[6].wlan[0].radio  channelNo:vector  ETV
attr interpolationmode  sample-hold
attr title  "channel no, vector"
vector 221  Net80211_aodv.host[7].wlan[0].radio  bitrate:vector  ETV
attr interpolationmode  sample-hold
attr title  "tx bitrate, vector"
attr unit  bps
vector 223  Net80211_aodv.host[7].wlan[0].radio  radioState:vector  ETV
attr interpolationmode  sample-hold
attr title  "radio state (enum), vector"
vector 222  Net80211_aodv.host[7].wlan[0].radio  channelNo:vector  ETV
attr interpolationmode  sample-hold
attr title  "channel no, vector"
vector 246  Net80211_aodv.host[8].wlan[0].radio  bitrate:vector  ETV
attr interpolationmode  sample-hold
attr title  "tx bitrate, vector"
attr unit  bps
vector 248  Net80211_aodv.host[8].wlan[0].radio  radioState:vector  ETV
attr interpolationmode  sample-hold
attr title  "radio state (enum), vector"
vector 247  Net80211_aodv.host[8].wlan[0].radio  channelNo:vector  ETV
attr interpolationmode  sample-hold
attr title  "channel no, vector"
vector 271  Net80211_aodv.host[9].wlan[0].radio  bitrate:vector  ETV
attr interpolationmode  sample-hold
attr title  "tx bitrate, vector"
attr unit  bps
vector 273  Net80211_aodv.host[9].wlan[0].radio  radioState:vector  ETV
attr interpolationmode  sample-hold
attr title  "radio state (enum), vector"
vector 272  Net80211_aodv.host[9].wlan[0].radio  channelNo:vector  ETV
attr interpolationmode  sample-hold
attr title  "channel no, vector"
vector 3  Net80211_aodv.fixhost[0].udp  sentPk:vector(packetBytes)  ETV
attr interpolationmode  none
attr source  sentPk
attr title  "packets sent, vector(packetBytes)"
vector 19  Net80211_aodv.fixhost[0].wlan[0].mac  rcvdPkFromHL:vector(packetBytes)  ETV
attr interpolationmode  none
attr source  packetReceivedFromUpper
attr title  "packets received from higher layer, vector(packetBytes)"
vector 278  Net80211_aodv.fixhost[0].wlan[0].mac  "throughput AC0"  ETV
vector 18  Net80211_aodv.fixhost[0].wlan[0].mac  sentDownPk:vector(packetBytes)  ETV
attr interpolationmode  none
attr source  packetSentToLower
attr title  "packets sent to lower layer, vector(packetBytes)"
vector 290  Net80211_aodv.host[1].wlan[0].mac  "throughput AC0"  ETV
vector 332  Net80211_aodv.host[8].wlan[0].mac  "throughput AC0"  ETV
vector 296  Net80211_aodv.host[2].wlan[0].mac  "throughput AC0"  ETV
vector 308  Net80211_aodv.host[4].wlan[0].mac  "throughput AC0"  ETV
vector 314  Net80211_aodv.host[5].wlan[0].mac  "throughput AC0"  ETV
vector 320  Net80211_aodv.host[6].wlan[0].mac  "throughput AC0"  ETV
vector 338  Net80211_aodv.host[9].wlan[0].mac  "throughput AC0"  ETV
vector 326  Net80211_aodv.host[7].wlan[0].mac  "throughput AC0"  ETV
vector 302  Net80211_aodv.host[3].wlan[0].mac  "throughput AC0"  ETV
vector 284  Net80211_aodv.host[0].wlan[0].mac  "throughput AC0"  ETV
vector 292  Net80211_aodv.host[1].wlan[0].radio  snirVector  ETV
vector 70  Net80211_aodv.host[1].wlan[0].mac  rcvdPkFromLL:vector(packetBytes)  ETV
attr interpolationmode  none
attr source  packetReceivedFromLower
attr title  "packets received from lower layer, vector(packetBytes)"
vector 67  Net80211_aodv.host[1].wlan[0].mac  passedUpPk:vector(packetBytes)  ETV
attr interpolationmode  none
attr source  packetSentToUpper
attr title  "packets passed to higher layer, vector(packetBytes)"
vector 334  Net80211_aodv.host[8].wlan[0].radio  snirVector  ETV
vector 245  Net80211_aodv.host[8].wlan[0].mac  rcvdPkFromLL:vector(packetBytes)  ETV
attr interpolationmode  none
attr source  packetReceivedFromLower
attr title  "packets received from lower layer, vector(packetBytes)"
vector 242  Net80211_aodv.host[8].wlan[0].mac  passedUpPk:vector(packetBytes)  ETV
attr interpolationmode  none
attr source  packetSentToUpper
attr title  "packets passed to higher layer, vector(packetBytes)"
vector 298  Net80211_aodv.host[2].wlan[0].radio  snirVector  ETV
vector 95  Net80211_aodv.host[2].wlan[0].mac  rcvdPkFromLL:vector(packetBytes)  ETV
attr interpolationmode  none
attr source  packetReceivedFromLower
attr title  "packets received from lower layer, vector(packetBytes)"
vector 92  Net80211_aodv.host[2].wlan[0].mac  passedUpPk:vector(packetBytes)  ETV
attr interpolationmode  none
attr source  packetSentToUpper
attr title  "packets passed to higher layer, vector(packetBytes)"
vector 310  Net80211_aodv.host[4].wlan[0].radio  snirVector  ETV
vector 145  Net80211_aodv.host[4].wlan[0].mac  rcvdPkFromLL:vector(packetBytes)  ETV
attr interpolationmode  none
attr source  packetReceivedFromLower
attr title  "packets received from lower layer, vector(packetBytes)"
vector 142  Net80211_aodv.host[4].wlan[0].mac  passedUpPk:vector(packetBytes)  ETV
attr interpolationmode  none
attr source  packetSentToUpper
attr title  "packets passed to higher layer, vector(packetBytes)"
vector 316  Net80211_aodv.host[5].wlan[0].radio  snirVector  ETV
vector 170  Net80211_aodv.host[5].wlan[0].mac  rcvdPkFromLL:vector(packetBytes)  ETV
attr interpolationmode  none
attr source  packetReceivedFromLower
attr title  "packets received from lower layer, vector(packetBytes)"
vector 167  Net80211_aodv.host[5].wlan[0].mac  passedUpPk:vector(packetBytes)  ETV
attr interpolationmode  none
attr source  packetSentToUpper
attr title  "packets passed to higher layer, vector(packetBytes)"
vector 322  Net80211_aodv.host[6].wlan[0].radio  snirVector  ETV
vector 195  Net80211_aodv.host[6].wlan[0].mac  rcvdPkFromLL:vector(packetBytes)  ETV
attr interpolationmode  none
attr source  packetReceivedFromLower
attr title  "packets received from lower layer, vector(packetBytes)"
vector 192  Net80211_aodv.host[6].wlan[0].mac  passedUpPk:vector(packetBytes)  ETV
attr interpolationmode  none
attr source  packetSentToUpper
attr title  "packets passed to higher layer, vector(packetBytes)"
vector 340  Net80211_aodv.host[9].wlan[0].radio  snirVector  ETV
vector 270  Net80211_aodv.host[9].wlan[0].mac  rcvdPkFromLL:vector(packetBytes)  ETV
attr interpolationmode  none
attr source  packetReceivedFromLower
attr title  "packets received from lower layer, vector(packetBytes)"
vector 267  Net80211_aodv.host[9].wlan[0].mac  passedUpPk:vector(packetBytes)  ETV
attr interpolationmode  none
attr source  packetSentToUpper
attr title  "packets passed to higher layer, vector(packetBytes)"
vector 328  Net80211_aodv.host[7].wlan[0].radio  snirVector  ETV
vector 220  Net80211_aodv.host[7].wlan[0].mac  rcvdPkFromLL:vector(packetBytes)  ETV
attr interpolationmode  none
attr source  packetReceivedFromLower
attr title  "packets received from lower layer, vector(packetBytes)"
vector 217  Net80211_aodv.host[7].wlan[0].mac  passedUpPk:vector(packetBytes)  ETV
attr interpolationmode  none
attr source  packetSentToUpper
attr title  "packets passed to higher layer, vector(packetBytes)"
vector 304  Net80211_aodv.host[3].wlan[0].radio  snirVector  ETV
vector 120  Net80211_aodv.host[3].wlan[0].mac  rcvdPkFromLL:vector(packetBytes)  ETV
attr interpolationmode  none
attr source  packetReceivedFromLower
attr title  "packets received from lower layer, vector(packetBytes)"
vector 117  Net80211_aodv.host[3].wlan[0].mac  passedUpPk:vector(packetBytes)  ETV
attr interpolationmode  none
attr source  packetSentToUpper
attr title  "packets passed to higher layer, vector(packetBytes)"
vector 286  Net80211_aodv.host[0].wlan[0].radio  snirVector  ETV
vector 45  Net80211_aodv.host[0].wlan[0].mac  rcvdPkFromLL:vector(packetBytes)  ETV
attr interpolationmode  none
attr source  packetReceivedFromLower
attr title  "packets received from lower layer, vector(packetBytes)"
vector 42  Net80211_aodv.host[0].wlan[0].mac  passedUpPk:vector(packetBytes)  ETV
attr interpolationmode  none
attr source  packetSentToUpper
attr title  "packets passed to higher layer, vector(packetBytes)"
vector 54  Net80211_aodv.host[1].udp  rcvdPk:vector(packetBytes)  ETV
attr interpolationmode  none
attr source  rcvdPk
attr title  "packets received, vector(packetBytes)"
vector 55  Net80211_aodv.host[1].udp  passedUpPk:vector(count)  ETV
attr interpolationmode  none
attr title  "packets passed up, vector(count)"
vector 229  Net80211_aodv.host[8].udp  rcvdPk:vector(packetBytes)  ETV
attr interpolationmode  none
attr source  rcvdPk
attr title  "packets received, vector(packetBytes)"
vector 230  Net80211_aodv.host[8].udp  passedUpPk:vector(count)  ETV
attr interpolationmode  none
attr title  "packets passed up, vector(count)"
vector 79  Net80211_aodv.host[2].udp  rcvdPk:vector(packetBytes)  ETV
attr interpolationmode  none
attr source  rcvdPk
attr title  "packets received, vector(packetBytes)"
vector 80  Net80211_aodv.host[2].udp  passedUpPk:vector(count)  ETV
attr interpolationmode  none
attr title  "packets passed up, vector(count)"
vector 129  Net80211_aodv.host[4].udp  rcvdPk:vector(packetBytes)  ETV
attr interpolationmode  none
attr source  rcvdPk
attr title  "packets received, vector(packetBytes)"
vector 130  Net80211_aodv.host[4].udp  passedUpPk:vector(count)  ETV
attr interpolationmode  none
attr title  "packets passed up, vector(count)"
vector 154  Net80211_aodv.host[5].udp  rcvdPk:vector(packetBytes)  ETV
attr interpolationmode  none
attr source  rcvdPk
attr title  "packets received, vector(packetBytes)"
vector 155  Net80211_aodv.host[5].udp  passedUpPk:vector(count)  ETV
attr interpolationmode  none
attr title  "packets passed up, vector(count)"
vector 179  Net80211_aodv.host[6].udp  rcvdPk:vector(packetBytes)  ETV
attr interpolationmode  none
attr source  rcvdPk
attr title  "packets received, vector(packetBytes)"
vector 180  Net80211_aodv.host[6].udp  passedUpPk:vector(count)  ETV
attr interpolationmode  none
attr title  "packets passed up, vector(count)"
vector 254  Net80211_aodv.host[9].udp  rcvdPk:vector(packetBytes)  ETV
attr interpolationmode  none
attr source  rcvdPk
attr title  "packets received, vector(packetBytes)"
vector 255  Net80211_aodv.host[9].udp  passedUpPk:vector(count)  ETV
attr interpolationmode  none
attr title  "packets passed up, vector(count)"
vector 204  Net80211_aodv.host[7].udp  rcvdPk:vector(packetBytes)  ETV
attr interpolationmode  none
attr source  rcvdPk
attr title  "packets received, vector(packetBytes)"
vector 205  Net80211_aodv.host[7].udp  passedUpPk:vector(count)  ETV
attr interpolationmode  none
attr title  "packets passed up, vector(count)"
vector 104  Net80211_aodv.host[3].udp  rcvdPk:vector(packetBytes)  ETV
attr interpolationmode  none
attr source  rcvdPk
attr title  "packets received, vector(packetBytes)"
vector 105  Net80211_aodv.host[3].udp  passedUpPk:vector(count)  ETV
attr interpolationmode  none
attr title  "packets passed up, vector(count)"
vector 29  Net80211_aodv.host[0].udp  rcvdPk:vector(packetBytes)  ETV
attr interpolationmode  none
attr source  rcvdPk
attr title  "packets received, vector(packetBytes)"
vector 30  Net80211_aodv.host[0].udp  passedUpPk:vector(count)  ETV
attr interpolationmode  none
attr title  "packets passed up, vector(count)"
vector 103  Net80211_aodv.host[3].udp  sentPk:vector(packetBytes)  ETV
attr interpolationmode  none
attr source  sentPk
attr title  "packets sent, vector(packetBytes)"
vector 119  Net80211_aodv.host[3].wlan[0].mac  rcvdPkFromHL:vector(packetBytes)  ETV
attr interpolationmode  none
attr source  packetReceivedFromUpper
attr title  "packets received from higher layer, vector(packetBytes)"
vector 118  Net80211_aodv.host[3].wlan[0].mac  sentDownPk:vector(packetBytes)  ETV
attr interpolationmode  none
attr source  packetSentToLower
attr title  "packets sent to lower layer, vector(packetBytes)"
vector 280  Net80211_aodv.fixhost[0].wlan[0].radio  snirVector  ETV
vector 20  Net80211_aodv.fixhost[0].wlan[0].mac  rcvdPkFromLL:vector(packetBytes)  ETV
attr interpolationmode  none
attr source  packetReceivedFromLower
attr title  "packets received from lower layer, vector(packetBytes)"
vector 17  Net80211_aodv.fixhost[0].wlan[0].mac  passedUpPk:vector(packetBytes)  ETV
attr interpolationmode  none
attr source  packetSentToUpper
attr title  "packets passed to higher layer, vector(packetBytes)"
vector 4  Net80211_aodv.fixhost[0].udp  rcvdPk:vector(packetBytes)  ETV
attr interpolationmode  none
attr source  rcvdPk
attr title  "packets received, vector(packetBytes)"
vector 5  Net80211_aodv.fixhost[0].udp  passedUpPk:vector(count)  ETV
attr interpolationmode  none
attr title  "packets passed up, vector(count)"
vector 53  Net80211_aodv.host[1].udp  sentPk:vector(packetBytes)  ETV
attr interpolationmode  none
attr source  sentPk
attr title  "packets sent, vector(packetBytes)"
vector 69  Net80211_aodv.host[1].wlan[0].mac  rcvdPkFromHL:vector(packetBytes)  ETV
attr interpolationmode  none
attr source  packetReceivedFromUpper
attr title  "packets received from higher layer, vector(packetBytes)"
vector 68  Net80211_aodv.host[1].wlan[0].mac  sentDownPk:vector(packetBytes)  ETV
attr interpolationmode  none
attr source  packetSentToLower
attr title  "packets sent to lower layer, vector(packetBytes)"
vector 28  Net80211_aodv.host[0].udp  sentPk:vector(packetBytes)  ETV
attr interpolationmode  none
attr source  sentPk
attr title  "packets sent, vector(packetBytes)"
vector 44  Net80211_aodv.host[0].wlan[0].mac  rcvdPkFromHL:vector(packetBytes)  ETV
attr interpolationmode  none
attr source  packetReceivedFromUpper
attr title  "packets received from higher layer, vector(packetBytes)"
vector 43  Net80211_aodv.host[0].wlan[0].mac  sentDownPk:vector(packetBytes)  ETV
attr interpolationmode  none
attr source  packetSentToLower
attr title  "packets sent to lower layer, vector(packetBytes)"
vector 128  Net80211_aodv.host[4].udp  sentPk:vector(packetBytes)  ETV
attr interpolationmode  none
attr source  sentPk
attr title  "packets sent, vector(packetBytes)"
vector 144  Net80211_aodv.host[4].wlan[0].mac  rcvdPkFromHL:vector(packetBytes)  ETV
attr interpolationmode  none
attr source  packetReceivedFromUpper
attr title  "packets received from higher layer, vector(packetBytes)"
vector 143  Net80211_aodv.host[4].wlan[0].mac  sentDownPk:vector(packetBytes)  ETV
attr interpolationmode  none
attr source  packetSentToLower
attr title  "packets sent to lower layer, vector(packetBytes)"
vector 78  Net80211_aodv.host[2].udp  sentPk:vector(packetBytes)  ETV
attr interpolationmode  none
attr source  sentPk
attr title  "packets sent, vector(packetBytes)"
vector 94  Net80211_aodv.host[2].wlan[0].mac  rcvdPkFromHL:vector(packetBytes)  ETV
attr interpolationmode  none
attr source  packetReceivedFromUpper
attr title  "packets received from higher layer, vector(packetBytes)"
vector 93  Net80211_aodv.host[2].wlan[0].mac  sentDownPk:vector(packetBytes)  ETV
attr interpolationmode  none
attr source  packetSentToLower
attr title  "packets sent to lower layer, vector(packetBytes)"
vector 253  Net80211_aodv.host[9].udp  sentPk:vector(packetBytes)  ETV
attr interpolationmode  none
attr source  sentPk
attr title  "packets sent, vector(packetBytes)"
vector 269  Net80211_aodv.host[9].wlan[0].mac  rcvdPkFromHL:vector(packetBytes)  ETV
attr interpolationmode  none
attr source  packetReceivedFromUpper
attr title  "packets received from higher layer, vector(packetBytes)"
vector 268  Net80211_aodv.host[9].wlan[0].mac  sentDownPk:vector(packetBytes)  ETV
attr interpolationmode  none
attr source  packetSentToLower
attr title  "packets sent to lower layer, vector(packetBytes)"
vector 203  Net80211_aodv.host[7].udp  sentPk:vector(packetBytes)  ETV
attr interpolationmode  none
attr source  sentPk
attr title  "packets sent, vector(packetBytes)"
vector 219  Net80211_aodv.host[7].wlan[0].mac  rcvdPkFromHL:vector(packetBytes)  ETV
attr interpolationmode  none
attr source  packetReceivedFromUpper
attr title  "packets received from higher layer, vector(packetBytes)"
vector 218  Net80211_aodv.host[7].wlan[0].mac  sentDownPk:vector(packetBytes)  ETV
attr interpolationmode  none
attr source  packetSentToLower
attr title  "packets sent to lower layer, vector(packetBytes)"
vector 228  Net80211_aodv.host[8].udp  sentPk:vector(packetBytes)  ETV
attr interpolationmode  none
attr source  sentPk
attr title  "packets sent, vector(packetBytes)"
vector 244  Net80211_aodv.host[8].wlan[0].mac  rcvdPkFromHL:vector(packetBytes)  ETV
attr interpolationmode  none
attr source  packetReceivedFromUpper
attr title  "packets received from higher layer, vector(packetBytes)"
vector 243  Net80211_aodv.host[8].wlan[0].mac  sentDownPk:vector(packetBytes)  ETV
attr interpolationmode  none
attr source  packetSentToLower
attr title  "packets sent to lower layer, vector(packetBytes)"
vector 178  Net80211_aodv.host[6].udp  sentPk:vector(packetBytes)  ETV
attr interpolationmode  none
attr source  sentPk
attr title  "packets sent, vector(packetBytes)"
vector 194  Net80211_aodv.host[6].wlan[0].mac  rcvdPkFromHL:vector(packetBytes)  ETV
attr interpolationmode  none
attr source  packetReceivedFromUpper
attr title  "packets received from higher layer, vector(packetBytes)"
vector 193  Net80211_aodv.host[6].wlan[0].mac  sentDownPk:vector(packetBytes)  ETV
attr interpolationmode  none
attr source  packetSentToLower
attr title  "packets sent to lower layer, vector(packetBytes)"
vector 153  Net80211_aodv.host[5].udp  sentPk:vector(packetBytes)  ETV
attr interpolationmode  none
attr source  sentPk
attr title  "packets sent, vector(packetBytes)"
vector 169  Net80211_aodv.host[5].wlan[0].mac  rcvdPkFromHL:vector(packetBytes)  ETV
attr interpolationmode  none
attr source  packetReceivedFromUpper
attr title  "packets received from higher layer, vector(packetBytes)"
vector 168  Net80211_aodv.host[5].wlan[0].mac  sentDownPk:vector(packetBytes)  ETV
attr interpolationmode  none
attr source  packetSentToLower
attr title  "packets sent to lower layer, vector(packetBytes)"
vector 174  Net80211_aodv.host[5].wlan[0].radio  lossRate:vector  ETV
attr interpolationmode  backward-sample-hold
attr title  "packet loss rate, vector"
vector 249  Net80211_aodv.host[8].wlan[0].radio  lossRate:vector  ETV
attr interpolationmode  backward-sample-hold
attr title  "packet loss rate, vector"
vector 149  Net80211_aodv.host[4].wlan[0].radio  lossRate:vector  ETV
attr interpolationmode  backward-sample-hold
attr title  "packet loss rate, vector"
vector 124  Net80211_aodv.host[3].wlan[0].radio  lossRate:vector  ETV
attr interpolationmode  backward-sample-hold
attr title  "packet loss rate, vector"
vector 274  Net80211_aodv.host[9].wlan[0].radio  lossRate:vector  ETV
attr interpolationmode  backward-sample-hold
attr title  "packet loss rate, vector"
vector 99  Net80211_aodv.host[2].wlan[0].radio  lossRate:vector  ETV
attr interpolationmode  backward-sample-hold
attr title  "packet loss rate, vector"
vector 224  Net80211_aodv.host[7].wlan[0].radio  lossRate:vector  ETV
attr interpolationmode  backward-sample-hold
attr title  "packet loss rate, vector"
vector 74  Net80211_aodv.host[1].wlan[0].radio  lossRate:vector  ETV
attr interpolationmode  backward-sample-hold
attr title  "packet loss rate, vector"
vector 199  Net80211_aodv.host[6].wlan[0].radio  lossRate:vector  ETV
attr interpolationmode  backward-sample-hold
attr title  "packet loss rate, vector"
vector 24  Net80211_aodv.fixhost[0].wlan[0].radio  lossRate:vector  ETV
attr interpolationmode  backward-sample-hold
attr title  "packet loss rate, vector"
vector 49  Net80211_aodv.host[0].wlan[0].radio  lossRate:vector  ETV
attr interpolationmode  backward-sample-hold
attr title  "packet loss rate, vector"
3	28606 9538 24 386949 1.110900766681 336.110900766681 336 27 27 9072 244944
4	38144 95343 228 387876 1.119293703197 336.580036000275 3358 27 27 90666 2447982
5	133487 100952 228 387876 1.119293703197 336.580036000275 3358 1 3358 5639761 12627424879
15	234439 9 0 0 0 0 1 0 0 0 0
17	234448 98701 196 387836 1.119283703197 336.580026000275 3358 89 89 298862 26598718
18	333149 9874 30 386955 1.110938766681 336.110938766681 336 89 89 29904 2661456
19	343023 9874 29 386954 1.110910766681 336.110910766681 336 89 89 29904 2661456
20	352897 98701 196 387836 1.119283703197 336.580026000275 3358 89 89 298862 26598718
21	451598 16 0 0 0 0 1 54000000 54000000 54000000 2.916e+15
22	451614 9 0 0 0 0 1 0 0 0 0
23	451623 209098 0 387835 0 336.580026000275 7389 0 2 4030 4702
24	660721 1905 5755 386905 5.878091302472 335.878091302472 67 0 0 0 0
28	662626 9875 339 387264 1.274086465127 336.274086465127 336 27 27 9072 244944
29	672501 98701 123 387888 1.111099228976 336.580036114565 3358 27 27 90666 2447982
30	771202 104310 123 387888 1.111099228976 336.580036114565 3358 1 3358 5639761 12627424879
40	875512 9 0 0 0 0 1 0 0 0 0
42	875521 98700 91 387856 1.111089228976 336.580026114565 3358 89 89 298862 26598718
43	974221 9875 345 387270 1.274124465127 336.274124465127 336 89 89 29904 2661456