file 82115 1409272682                                           
version 2
run Transmissao-0-20140828-21:37:54-32168
attr configname Transmissao
attr datetime 20140828-21:37:54
attr experiment Transmissao
attr inifile omnetpp.ini
attr iterationvars ""
attr iterationvars2 $repetition=0
attr measurement ""
attr network ncorp_inetmanet.simulations.rede10.Net80211_aodv
attr processid 32168
attr repetition 0
attr replication #0
attr resultdir results
attr runnumber 0
attr seedset 0

vector 15  Net80211_aodv.fixhost[0].wlan[0].mgmt  dataQueueLen:vector  ETV
attr interpolationmode  sample-hold
attr title  "data queue length, vector"
vector 40  Net80211_aodv.host[0].wlan[0].mgmt  dataQueueLen:vector  ETV
attr interpolationmode  sample-hold
attr title  "data queue length, vector"
vector 65  Net80211_aodv.host[1].wlan[0].mgmt  dataQueueLen:vector  ETV
attr interpolationmode  sample-hold
attr title  "data queue length, vector"
vector 90  Net80211_aodv.host[2].wlan[0].mgmt  dataQueueLen:vector  ETV
attr interpolationmode  sample-hold
attr title  "data queue length, vector"
vector 115  Net80211_aodv.host[3].wlan[0].mgmt  dataQueueLen:vector  ETV
attr interpolationmode  sample-hold
attr title  "data queue length, vector"
vector 140  Net80211_aodv.host[4].wlan[0].mgmt  dataQueueLen:vector  ETV
attr interpolationmode  sample-hold
attr title  "data queue length, vector"
vector 165  Net80211_aodv.host[5].wlan[0].mgmt  dataQueueLen:vector  ETV
attr interpolationmode  sample-hold
attr title  "data queue length, vector"
vector 190  Net80211_aodv.host[6].wlan[0].mgmt  dataQueueLen:vector  ETV
attr interpolationmode  sample-hold
attr title  "data queue length, vector"
vector 215  Net80211_aodv.host[7].wlan[0].mgmt  dataQueueLen:vector  ETV
attr interpolationmode  sample-hold
attr title  "data queue length, vector"
vector 240  Net80211_aodv.host[8].wlan[0].mgmt  dataQueueLen:vector  ETV
attr interpolationmode  sample-hold
attr title  "data queue length, vector"
vector 265  Net80211_aodv.host[9].wlan[0].mgmt  dataQueueLen:vector  ETV
attr interpolationmode  sample-hold
attr title  "data queue length, vector"
vector 276  Net80211_aodv.fixhost[0].wlan[0].mac  RadioState  ETV
attr enum  "IDLE=0, OFF=4, RECV=1, SLEEP=3, TRANSMIT=2"
attr enumname  RadioState
vector 275  Net80211_aodv.fixhost[0].wlan[0].mac  State  ETV
attr enum  "BACKOFF=3, DEFER=1, IDLE=0, RECEIVE=8, WAITACK=4, WAITAIFS=2, WAITCTS=6, WAITMULTICAST=5, WAITSIFS=7"
attr enumname  Ieee80211Mac
vector 282  Net80211_aodv.host[0].wlan[0].mac  RadioState  ETV
attr enum  "IDLE=0, OFF=4, RECV=1, SLEEP=3, TRANSMIT=2"
attr enumname  RadioState
vector 281  Net80211_aodv.host[0].wlan[0].mac  State  ETV
attr enum  "BACKOFF=3, DEFER=1, IDLE=0, RECEIVE=8, WAITACK=4, WAITAIFS=2, WAITCTS=6, WAITMULTICAST=5, WAITSIFS=7"
attr enumname  Ieee80211Mac
vector 288  Net80211_aodv.host[1].wlan[0].mac  RadioState  ETV
attr enum  "IDLE=0, OFF=4, RECV=1, SLEEP=3, TRANSMIT=2"
attr enumname  RadioState
vector 287  Net80211_aodv.host[1].wlan[0].mac  State  ETV
attr enum  "BACKOFF=3, DEFER=1, IDLE=0, RECEIVE=8, WAITACK=4, WAITAIFS=2, WAITCTS=6, WAITMULTICAST=5, WAITSIFS=7"
attr enumname  Ieee80211Mac
vector 294  Net80211_aodv.host[2].wlan[0].mac  RadioState  ETV
attr enum  "IDLE=0, OFF=4, RECV=1, SLEEP=3, TRANSMIT=2"
attr enumname  RadioState
vector 293  Net80211_aodv.host[2].wlan[0].mac  State  ETV
attr enum  "BACKOFF=3, DEFER=1, IDLE=0, RECEIVE=8, WAITACK=4, WAITAIFS=2, WAITCTS=6, WAITMULTICAST=5, WAITSIFS=7"
attr enumname  Ieee80211Mac
vector 300  Net80211_aodv.host[3].wlan[0].mac  RadioState  ETV
attr enum  "IDLE=0, OFF=4, RECV=1, SLEEP=3, TRANSMIT=2"
attr enumname  RadioState
vector 299  Net80211_aodv.host[3].wlan[0].mac  State  ETV
attr enum  "BACKOFF=3, DEFER=1, IDLE=0, RECEIVE=8, WAITACK=4, WAITAIFS=2, WAITCTS=6, WAITMULTICAST=5, WAITSIFS=7"
attr enumname  Ieee80211Mac
vector 306  Net80211_aodv.host[4].wlan[0].mac  RadioState  ETV
attr enum  "IDLE=0, OFF=4, RECV=1, SLEEP=3, TRANSMIT=2"
attr enumname  RadioState
vector 305  Net80211_aodv.host[4].wlan[0].mac  State  ETV
attr enum  "BACKOFF=3, DEFER=1, IDLE=0, RECEIVE=8, WAITACK=4, WAITAIFS=2, WAITCTS=6, WAITMULTICAST=5, WAITSIFS=7"
attr enumname  Ieee80211Mac
vector 312  Net80211_aodv.host[5].wlan[0].mac  RadioState  ETV
attr enum  "IDLE=0, OFF=4, RECV=1, SLEEP=3, TRANSMIT=2"
attr enumname  RadioState
vector 311  Net80211_aodv.host[5].wlan[0].mac  State  ETV
attr enum  "BACKOFF=3, DEFER=1, IDLE=0, RECEIVE=8, WAITACK=4, WAITAIFS=2, WAITCTS=6, WAITMULTICAST=5, WAITSIFS=7"
attr enumname  Ieee80211Mac
vector 318  Net80211_aodv.host[6].wlan[0].mac  RadioState  ETV
attr enum  "IDLE=0, OFF=4, RECV=1, SLEEP=3, TRANSMIT=2"
attr enumname  RadioState
vector 317  Net80211_aodv.host[6].wlan[0].mac  State  ETV
attr enum  "BACKOFF=3, DEFER=1, IDLE=0, RECEIVE=8, WAITACK=4, WAITAIFS=2, WAITCTS=6, WAITMULTICAST=5, WAITSIFS=7"
attr enumname  Ieee80211Mac
vector 324  Net80211_aodv.host[7].wlan[0].mac  RadioState  ETV
attr enum  "IDLE=0, OFF=4, RECV=1, SLEEP=3, TRANSMIT=2"
attr enumname  RadioState
vector 323  Net80211_aodv.host[7].wlan[0].mac  State  ETV
attr enum  "BACKOFF=3, DEFER=1, IDLE=0, RECEIVE=8, WAITACK=4, WAITAIFS=2, WAITCTS=6, WAITMULTICAST=5, WAITSIFS=7"
attr enumname  Ieee80211Mac
vector 330  Net80211_aodv.host[8].wlan[0].mac  RadioState  ETV
attr enum  "IDLE=0, OFF=4, RECV=1, SLEEP=3, TRANSMIT=2"
attr enumname  RadioState
vector 329  Net80211_aodv.host[8].wlan[0].mac  State  ETV
attr enum  "BACKOFF=3, DEFER=1, IDLE=0, RECEIVE=8, WAITACK=4, WAITAIFS=2, WAITCTS=6, WAITMULTICAST=5, WAITSIFS=7"
attr enumname  Ieee80211Mac
vector 336  Net80211_aodv.host[9].wlan[0].mac  RadioState  ETV
attr enum  "IDLE=0, OFF=4, RECV=1, SLEEP=3, TRANSMIT=2"
attr enumname  RadioState
vector 335  Net80211_aodv.host[9].wlan[0].mac  State  ETV
attr enum  "BACKOFF=3, DEFER=1, IDLE=0, RECEIVE=8, WAITACK=4, WAITAIFS=2, WAITCTS=6, WAITMULTICAST=5, WAITSIFS=7"
attr enumname  Ieee80211Mac
vector 21  Net80211_aodv.fixhost[0].wlan[0].radio  bitrate:vector  ETV
attr interpolationmode  sample-hold
attr title  "tx bitrate, vector"
attr unit  bps
vector 23  Net80211_aodv.fixhost[0].wlan[0].radio  radioState:vector  ETV
attr interpolationmode  sample-hold
attr title  "radio state (enum), vector"
vector 22  Net80211_aodv.fixhost[0].wlan[0].radio  channelNo:vector  ETV
attr interpolationmode  sample-hold
attr title  "channel no, vector"
vector 46  Net80211_aodv.host[0].wlan[0].radio  bitrate:vector  ETV
attr interpolationmode  sample-hold
attr title  "tx bitrate, vector"
attr unit  bps
vector 48  Net80211_aodv.host[0].wlan[0].radio  radioState:vector  ETV
attr interpolationmode  sample-hold
attr title  "radio state (enum), vector"
vector 47  Net80211_aodv.host[0].wlan[0].radio  channelNo:vector  ETV
attr interpolationmode  sample-hold
attr title  "channel no, vector"
vector 71  Net80211_aodv.host[1].wlan[0].radio  bitrate:vector  ETV
attr interpolationmode  sample-hold
attr title  "tx bitrate, vector"
attr unit  bps
vector 73  Net80211_aodv.host[1].wlan[0].radio  radioState:vector  ETV
attr interpolationmode  sample-hold
attr title  "radio state (enum), vector"
vector 72  Net80211_aodv.host[1].wlan[0].radio  channelNo:vector  ETV
attr interpolationmode  sample-hold
attr title  "channel no, vector"
vector 96  Net80211_aodv.host[2].wlan[0].radio  bitrate:vector  ETV
attr interpolationmode  sample-hold
attr title  "tx bitrate, vector"
attr unit  bps
vector 98  Net80211_aodv.host[2].wlan[0].radio  radioState:vector  ETV
attr interpolationmode  sample-hold
attr title  "radio state (enum), vector"
vector 97  Net80211_aodv.host[2].wlan[0].radio  channelNo:vector  ETV
attr interpolationmode  sample-hold
attr title  "channel no, vector"
vector 121  Net80211_aodv.host[3].wlan[0].radio  bitrate:vector  ETV
attr interpolationmode  sample-hold
attr title  "tx bitrate, vector"
attr unit  bps
vector 123  Net80211_aodv.host[3].wlan[0].radio  radioState:vector  ETV
attr interpolationmode  sample-hold
attr title  "radio state (enum), vector"
vector 122  Net80211_aodv.host[3].wlan[0].radio  channelNo:vector  ETV
attr interpolationmode  sample-hold
attr title  "channel no, vector"
vector 146  Net80211_aodv.host[4].wlan[0].radio  bitrate:vector  ETV
attr interpolationmode  sample-hold
attr title  "tx bitrate, vector"
attr unit  bps
vector 148  Net80211_aodv.host[4].wlan[0].radio  radioState:vector  ETV
attr interpolationmode  sample-hold
attr title  "radio state (enum), vector"
vector 147  Net80211_aodv.host[4].wlan[0].radio  channelNo:vector  ETV
attr interpolationmode  sample-hold
attr title  "channel no, vector"
vector 171  Net80211_aodv.host[5].wlan[0].radio  bitrate:vector  ETV
attr interpolationmode  sample-hold
attr title  "tx bitrate, vector"
attr unit  bps
vector 173  Net80211_aodv.host[5].wlan[0].radio  radioState:vector  ETV
attr interpolationmode  sample-hold
attr title  "radio state (enum), vector"
vector 172  Net80211_aodv.host[5].wlan[0].radio  channelNo:vector  ETV
attr interpolationmode  sample-hold
attr title  "channel no, vector"
vector 196  Net80211_aodv.host[6].wlan[0].radio  bitrate:vector  ETV
attr interpolationmode  sample-hold
attr title  "tx bitrate, vector"
attr unit  bps
vector 198  Net80211_aodv.host[6].wlan[0].radio  radioState:vector  ETV
attr interpolationmode  sample-hold
attr title  "radio state (enum), vector"
vector 197  Net80211_aodv.host[6].wlan[0].radio  channelNo:vector  ETV
attr interpolationmode  sample-hold
attr title  "channel no, vector"
vector 221  Net80211_aodv.host[7].wlan[0].radio  bitrate:vector  ETV
attr interpolationmode  sample-hold
attr title  "tx bitrate, vector"
attr unit  bps
vector 223  Net80211_aodv.host[7].wlan[0].radio  radioState:vector  ETV
attr interpolationmode  sample-hold
attr title  "radio state (enum), vector"
vector 222  Net80211_aodv.host[7].wlan[0].radio  channelNo:vector  ETV
attr interpolationmode  sample-hold
attr title  "channel no, vector"
vector 246  Net80211_aodv.host[8].wlan[0].radio  bitrate:vector  ETV
attr interpolationmode  sample-hold
attr title  "tx bitrate, vector"
attr unit  bps
vector 248  Net80211_aodv.host[8].wlan[0].radio  radioState:vector  ETV
attr interpolationmode  sample-hold
attr title  "radio state (enum), vector"
vector 247  Net80211_aodv.host[8].wlan[0].radio  channelNo:vector  ETV
attr interpolationmode  sample-hold
attr title  "channel no, vector"
vector 271  Net80211_aodv.host[9].wlan[0].radio  bitrate:vector  ETV
attr interpolationmode  sample-hold
attr title  "tx bitrate, vector"
attr unit  bps
vector 273  Net80211_aodv.host[9].wlan[0].radio  radioState:vector  ETV
attr interpolationmode  sample-hold
attr title  "radio state (enum), vector"
vector 272  Net80211_aodv.host[9].wlan[0].radio  channelNo:vector  ETV
attr interpolationmode  sample-hold
attr title  "channel no, vector"
vector 28  Net80211_aodv.host[0].udp  sentPk:vector(packetBytes)  ETV
attr interpolationmode  none
attr source  sentPk
attr title  "packets sent, vector(packetBytes)"
vector 44  Net80211_aodv.host[0].wlan[0].mac  rcvdPkFromHL:vector(packetBytes)  ETV
attr interpolationmode  none
attr source  packetReceivedFromUpper
attr title  "packets received from higher layer, vector(packetBytes)"
vector 284  Net80211_aodv.host[0].wlan[0].mac  "throughput AC0"  ETV
vector 43  Net80211_aodv.host[0].wlan[0].mac  sentDownPk:vector(packetBytes)  ETV
attr interpolationmode  none
attr source  packetSentToLower
attr title  "packets sent to lower layer, vector(packetBytes)"
vector 302  Net80211_aodv.host[3].wlan[0].mac  "throughput AC0"  ETV
vector 326  Net80211_aodv.host[7].wlan[0].mac  "throughput AC0"  ETV
vector 314  Net80211_aodv.host[5].wlan[0].mac  "throughput AC0"  ETV
vector 338  Net80211_aodv.host[9].wlan[0].mac  "throughput AC0"  ETV
vector 308  Net80211_aodv.host[4].wlan[0].mac  "throughput AC0"  ETV
vector 304  Net80211_aodv.host[3].wlan[0].radio  snirVector  ETV
vector 120  Net80211_aodv.host[3].wlan[0].mac  rcvdPkFromLL:vector(packetBytes)  ETV
attr interpolationmode  none
attr source  packetReceivedFromLower
attr title  "packets received from lower layer, vector(packetBytes)"
vector 117  Net80211_aodv.host[3].wlan[0].mac  passedUpPk:vector(packetBytes)  ETV
attr interpolationmode  none
attr source  packetSentToUpper
attr title  "packets passed to higher layer, vector(packetBytes)"
vector 328  Net80211_aodv.host[7].wlan[0].radio  snirVector  ETV
vector 220  Net80211_aodv.host[7].wlan[0].mac  rcvdPkFromLL:vector(packetBytes)  ETV
attr interpolationmode  none
attr source  packetReceivedFromLower
attr title  "packets received from lower layer, vector(packetBytes)"
vector 217  Net80211_aodv.host[7].wlan[0].mac  passedUpPk:vector(packetBytes)  ETV
attr interpolationmode  none
attr source  packetSentToUpper
attr title  "packets passed to higher layer, vector(packetBytes)"
vector 316  Net80211_aodv.host[5].wlan[0].radio  snirVector  ETV
vector 170  Net80211_aodv.host[5].wlan[0].mac  rcvdPkFromLL:vector(packetBytes)  ETV
attr interpolationmode  none
attr source  packetReceivedFromLower
attr title  "packets received from lower layer, vector(packetBytes)"
vector 167  Net80211_aodv.host[5].wlan[0].mac  passedUpPk:vector(packetBytes)  ETV
attr interpolationmode  none
attr source  packetSentToUpper
attr title  "packets passed to higher layer, vector(packetBytes)"
vector 340  Net80211_aodv.host[9].wlan[0].radio  snirVector  ETV
vector 270  Net80211_aodv.host[9].wlan[0].mac  rcvdPkFromLL:vector(packetBytes)  ETV
attr interpolationmode  none
attr source  packetReceivedFromLower
attr title  "packets received from lower layer, vector(packetBytes)"
vector 267  Net80211_aodv.host[9].wlan[0].mac  passedUpPk:vector(packetBytes)  ETV
attr interpolationmode  none
attr source  packetSentToUpper
attr title  "packets passed to higher layer, vector(packetBytes)"
vector 310  Net80211_aodv.host[4].wlan[0].radio  snirVector  ETV
vector 145  Net80211_aodv.host[4].wlan[0].mac  rcvdPkFromLL:vector(packetBytes)  ETV
attr interpolationmode  none
attr source  packetReceivedFromLower
attr title  "packets received from lower layer, vector(packetBytes)"
vector 142  Net80211_aodv.host[4].wlan[0].mac  passedUpPk:vector(packetBytes)  ETV
attr interpolationmode  none
attr source  packetSentToUpper
attr title  "packets passed to higher layer, vector(packetBytes)"
vector 104  Net80211_aodv.host[3].udp  rcvdPk:vector(packetBytes)  ETV
attr interpolationmode  none
attr source  rcvdPk
attr title  "packets received, vector(packetBytes)"
vector 105  Net80211_aodv.host[3].udp  passedUpPk:vector(count)  ETV
attr interpolationmode  none
attr title  "packets passed up, vector(count)"
vector 103  Net80211_aodv.host[3].udp  sentPk:vector(packetBytes)  ETV
attr interpolationmode  none
attr source  sentPk
attr title  "packets sent, vector(packetBytes)"
vector 204  Net80211_aodv.host[7].udp  rcvdPk:vector(packetBytes)  ETV
attr interpolationmode  none
attr source  rcvdPk
attr title  "packets received, vector(packetBytes)"
vector 205  Net80211_aodv.host[7].udp  passedUpPk:vector(count)  ETV
attr interpolationmode  none
attr title  "packets passed up, vector(count)"
vector 203  Net80211_aodv.host[7].udp  sentPk:vector(packetBytes)  ETV
attr interpolationmode  none
attr source  sentPk
attr title  "packets sent, vector(packetBytes)"
vector 154  Net80211_aodv.host[5].udp  rcvdPk:vector(packetBytes)  ETV
attr interpolationmode  none
attr source  rcvdPk
attr title  "packets received, vector(packetBytes)"
vector 155  Net80211_aodv.host[5].udp  passedUpPk:vector(count)  ETV
attr interpolationmode  none
attr title  "packets passed up, vector(count)"
vector 153  Net80211_aodv.host[5].udp  sentPk:vector(packetBytes)  ETV
attr interpolationmode  none
attr source  sentPk
attr title  "packets sent, vector(packetBytes)"
vector 254  Net80211_aodv.host[9].udp  rcvdPk:vector(packetBytes)  ETV
attr interpolationmode  none
attr source  rcvdPk
attr title  "packets received, vector(packetBytes)"
vector 255  Net80211_aodv.host[9].udp  passedUpPk:vector(count)  ETV
attr interpolationmode  none
attr title  "packets passed up, vector(count)"
vector 253  Net80211_aodv.host[9].udp  sentPk:vector(packetBytes)  ETV
attr interpolationmode  none
attr source  sentPk
attr title  "packets sent, vector(packetBytes)"
vector 129  Net80211_aodv.host[4].udp  rcvdPk:vector(packetBytes)  ETV
attr interpolationmode  none
attr source  rcvdPk
attr title  "packets received, vector(packetBytes)"
vector 130  Net80211_aodv.host[4].udp  passedUpPk:vector(count)  ETV
attr interpolationmode  none
attr title  "packets passed up, vector(count)"
vector 128  Net80211_aodv.host[4].udp  sentPk:vector(packetBytes)  ETV
attr interpolationmode  none
attr source  sentPk
attr title  "packets sent, vector(packetBytes)"
vector 119  Net80211_aodv.host[3].wlan[0].mac  rcvdPkFromHL:vector(packetBytes)  ETV
attr interpolationmode  none
attr source  packetReceivedFromUpper
attr title  "packets received from higher layer, vector(packetBytes)"
vector 219  Net80211_aodv.host[7].wlan[0].mac  rcvdPkFromHL:vector(packetBytes)  ETV
attr interpolationmode  none
attr source  packetReceivedFromUpper
attr title  "packets received from higher layer, vector(packetBytes)"
vector 169  Net80211_aodv.host[5].wlan[0].mac  rcvdPkFromHL:vector(packetBytes)  ETV
attr interpolationmode  none
attr source  packetReceivedFromUpper
attr title  "packets received from higher layer, vector(packetBytes)"
vector 269  Net80211_aodv.host[9].wlan[0].mac  rcvdPkFromHL:vector(packetBytes)  ETV
attr interpolationmode  none
attr source  packetReceivedFromUpper
attr title  "packets received from higher layer, vector(packetBytes)"
vector 144  Net80211_aodv.host[4].wlan[0].mac  rcvdPkFromHL:vector(packetBytes)  ETV
attr interpolationmode  none
attr source  packetReceivedFromUpper
attr title  "packets received from higher layer, vector(packetBytes)"
vector 118  Net80211_aodv.host[3].wlan[0].mac  sentDownPk:vector(packetBytes)  ETV
attr interpolationmode  none
attr source  packetSentToLower
attr title  "packets sent to lower layer, vector(packetBytes)"
vector 218  Net80211_aodv.host[7].wlan[0].mac  sentDownPk:vector(packetBytes)  ETV
attr interpolationmode  none
attr source  packetSentToLower
attr title  "packets sent to lower layer, vector(packetBytes)"
vector 168  Net80211_aodv.host[5].wlan[0].mac  sentDownPk:vector(packetBytes)  ETV
attr interpolationmode  none
attr source  packetSentToLower
attr title  "packets sent to lower layer, vector(packetBytes)"
vector 268  Net80211_aodv.host[9].wlan[0].mac  sentDownPk:vector(packetBytes)  ETV
attr interpolationmode  none
attr source  packetSentToLower
attr title  "packets sent to lower layer, vector(packetBytes)"
vector 143  Net80211_aodv.host[4].wlan[0].mac  sentDownPk:vector(packetBytes)  ETV
attr interpolationmode  none
attr source  packetSentToLower
attr title  "packets sent to lower layer, vector(packetBytes)"
vector 332  Net80211_aodv.host[8].wlan[0].mac  "throughput AC0"  ETV
vector 320  Net80211_aodv.host[6].wlan[0].mac  "throughput AC0"  ETV
vector 296  Net80211_aodv.host[2].wlan[0].mac  "throughput AC0"  ETV
vector 290  Net80211_aodv.host[1].wlan[0].mac  "throughput AC0"  ETV
vector 278  Net80211_aodv.fixhost[0].wlan[0].mac  "throughput AC0"  ETV
vector 334  Net80211_aodv.host[8].wlan[0].radio  snirVector  ETV
vector 245  Net80211_aodv.host[8].wlan[0].mac  rcvdPkFromLL:vector(packetBytes)  ETV
attr interpolationmode  none
attr source  packetReceivedFromLower
attr title  "packets received from lower layer, vector(packetBytes)"
vector 286  Net80211_aodv.host[0].wlan[0].radio  snirVector  ETV
vector 45  Net80211_aodv.host[0].wlan[0].mac  rcvdPkFromLL:vector(packetBytes)  ETV
attr interpolationmode  none
attr source  packetReceivedFromLower
attr title  "packets received from lower layer, vector(packetBytes)"
vector 322  Net80211_aodv.host[6].wlan[0].radio  snirVector  ETV
vector 195  Net80211_aodv.host[6].wlan[0].mac  rcvdPkFromLL:vector(packetBytes)  ETV
attr interpolationmode  none
attr source  packetReceivedFromLower
attr title  "packets received from lower layer, vector(packetBytes)"
vector 298  Net80211_aodv.host[2].wlan[0].radio  snirVector  ETV
vector 95  Net80211_aodv.host[2].wlan[0].mac  rcvdPkFromLL:vector(packetBytes)  ETV
attr interpolationmode  none
attr source  packetReceivedFromLower
attr title  "packets received from lower layer, vector(packetBytes)"
vector 292  Net80211_aodv.host[1].wlan[0].radio  snirVector  ETV
vector 70  Net80211_aodv.host[1].wlan[0].mac  rcvdPkFromLL:vector(packetBytes)  ETV
attr interpolationmode  none
attr source  packetReceivedFromLower
attr title  "packets received from lower layer, vector(packetBytes)"
vector 280  Net80211_aodv.fixhost[0].wlan[0].radio  snirVector  ETV
vector 20  Net80211_aodv.fixhost[0].wlan[0].mac  rcvdPkFromLL:vector(packetBytes)  ETV
attr interpolationmode  none
attr source  packetReceivedFromLower
attr title  "packets received from lower layer, vector(packetBytes)"
vector 92  Net80211_aodv.host[2].wlan[0].mac  passedUpPk:vector(packetBytes)  ETV
attr interpolationmode  none
attr source  packetSentToUpper
attr title  "packets passed to higher layer, vector(packetBytes)"
vector 67  Net80211_aodv.host[1].wlan[0].mac  passedUpPk:vector(packetBytes)  ETV
attr interpolationmode  none
attr source  packetSentToUpper
attr title  "packets passed to higher layer, vector(packetBytes)"
vector 242  Net80211_aodv.host[8].wlan[0].mac  passedUpPk:vector(packetBytes)  ETV
attr interpolationmode  none
attr source  packetSentToUpper
attr title  "packets passed to higher layer, vector(packetBytes)"
vector 42  Net80211_aodv.host[0].wlan[0].mac  passedUpPk:vector(packetBytes)  ETV
attr interpolationmode  none
attr source  packetSentToUpper
attr title  "packets passed to higher layer, vector(packetBytes)"
vector 17  Net80211_aodv.fixhost[0].wlan[0].mac  passedUpPk:vector(packetBytes)  ETV
attr interpolationmode  none
attr source  packetSentToUpper
attr title  "packets passed to higher layer, vector(packetBytes)"
vector 79  Net80211_aodv.host[2].udp  rcvdPk:vector(packetBytes)  ETV
attr interpolationmode  none
attr source  rcvdPk
attr title  "packets received, vector(packetBytes)"
vector 80  Net80211_aodv.host[2].udp  passedUpPk:vector(count)  ETV
attr interpolationmode  none
attr title  "packets passed up, vector(count)"
vector 78  Net80211_aodv.host[2].udp  sentPk:vector(packetBytes)  ETV
attr interpolationmode  none
attr source  sentPk
attr title  "packets sent, vector(packetBytes)"
vector 54  Net80211_aodv.host[1].udp  rcvdPk:vector(packetBytes)  ETV
attr interpolationmode  none
attr source  rcvdPk
attr title  "packets received, vector(packetBytes)"
vector 55  Net80211_aodv.host[1].udp  passedUpPk:vector(count)  ETV
attr interpolationmode  none
attr title  "packets passed up, vector(count)"
vector 53  Net80211_aodv.host[1].udp  sentPk:vector(packetBytes)  ETV
attr interpolationmode  none
attr source  sentPk
attr title  "packets sent, vector(packetBytes)"
vector 229  Net80211_aodv.host[8].udp  rcvdPk:vector(packetBytes)  ETV
attr interpolationmode  none
attr source  rcvdPk
attr title  "packets received, vector(packetBytes)"
vector 230  Net80211_aodv.host[8].udp  passedUpPk:vector(count)  ETV
attr interpolationmode  none
attr title  "packets passed up, vector(count)"
vector 228  Net80211_aodv.host[8].udp  sentPk:vector(packetBytes)  ETV
attr interpolationmode  none
attr source  sentPk
attr title  "packets sent, vector(packetBytes)"
vector 29  Net80211_aodv.host[0].udp  rcvdPk:vector(packetBytes)  ETV
attr interpolationmode  none
attr source  rcvdPk
attr title  "packets received, vector(packetBytes)"
vector 30  Net80211_aodv.host[0].udp  passedUpPk:vector(count)  ETV
attr interpolationmode  none
attr title  "packets passed up, vector(count)"
vector 4  Net80211_aodv.fixhost[0].udp  rcvdPk:vector(packetBytes)  ETV
attr interpolationmode  none
attr source  rcvdPk
attr title  "packets received, vector(packetBytes)"
vector 5  Net80211_aodv.fixhost[0].udp  passedUpPk:vector(count)  ETV
attr interpolationmode  none
attr title  "packets passed up, vector(count)"
vector 3  Net80211_aodv.fixhost[0].udp  sentPk:vector(packetBytes)  ETV
attr interpolationmode  none
attr source  sentPk
attr title  "packets sent, vector(packetBytes)"
vector 94  Net80211_aodv.host[2].wlan[0].mac  rcvdPkFromHL:vector(packetBytes)  ETV
attr interpolationmode  none
attr source  packetReceivedFromUpper
attr title  "packets received from higher layer, vector(packetBytes)"
vector 69  Net80211_aodv.host[1].wlan[0].mac  rcvdPkFromHL:vector(packetBytes)  ETV
attr interpolationmode  none
attr source  packetReceivedFromUpper
attr title  "packets received from higher layer, vector(packetBytes)"
vector 244  Net80211_aodv.host[8].wlan[0].mac  rcvdPkFromHL:vector(packetBytes)  ETV
attr interpolationmode  none
attr source  packetReceivedFromUpper
attr title  "packets received from higher layer, vector(packetBytes)"
vector 19  Net80211_aodv.fixhost[0].wlan[0].mac  rcvdPkFromHL:vector(packetBytes)  ETV
attr interpolationmode  none
attr source  packetReceivedFromUpper
attr title  "packets received from higher layer, vector(packetBytes)"
vector 192  Net80211_aodv.host[6].wlan[0].mac  passedUpPk:vector(packetBytes)  ETV
attr interpolationmode  none
attr source  packetSentToUpper
attr title  "packets passed to higher layer, vector(packetBytes)"
vector 179  Net80211_aodv.host[6].udp  rcvdPk:vector(packetBytes)  ETV
attr interpolationmode  none
attr source  rcvdPk
attr title  "packets received, vector(packetBytes)"
vector 180  Net80211_aodv.host[6].udp  passedUpPk:vector(count)  ETV
attr interpolationmode  none
attr title  "packets passed up, vector(count)"
vector 68  Net80211_aodv.host[1].wlan[0].mac  sentDownPk:vector(packetBytes)  ETV
attr interpolationmode  none
attr source  packetSentToLower
attr title  "packets sent to lower layer, vector(packetBytes)"
vector 243  Net80211_aodv.host[8].wlan[0].mac  sentDownPk:vector(packetBytes)  ETV
attr interpolationmode  none
attr source  packetSentToLower
attr title  "packets sent to lower layer, vector(packetBytes)"
vector 18  Net80211_aodv.fixhost[0].wlan[0].mac  sentDownPk:vector(packetBytes)  ETV
attr interpolationmode  none
attr source  packetSentToLower
attr title  "packets sent to lower layer, vector(packetBytes)"
3	26137 126 419 1015 10.000667530527 10.001699369284 5 46 46 230 10580
4	26263 121 417 1013 10.000667530527 10.001699369284 5 8 8 40 320
5	26384 121 417 1013 10.000667530527 10.001699369284 5 1 5 15 55
15	26505 163 0 1254 0 10.002574369284 7 0 3 9 19
17	26668 130 364 964 10.000657530527 10.001689369284 5 70 70 350 24500
18	26798 140 1063 1419 10.001744369284 10.003326369284 5 108 108 540 58320
19	26938 138 442 1256 10.000677530527 10.002574369284 5 108 108 540 58320
20	27076 182 267 964 10.000340350415 10.001689369284 7 70 70 490 34300
21	27258 16 0 0 0 0 1 54000000 54000000 54000000 2.916e+15
22	27274 9 0 0 0 0 1 0 0 0 0
23	27283 619 0 1432 0 10.003500369284 25 0 2 17 27
28	27902 104 26 661 10 10.001064908644 5 8 8 40 320
29	28006 50 411 555 10.000667374829 10.000839908644 2 8 8 16 128
30	28056 50 411 555 10.000667374829 10.000839908644 2 1 2 3 5
40	28106 59 0 708 0 10.001074908644 3 0 2 3 5
42	28165 52 360 506 10.000657374829 10.000829908644 2 70 70 140 9800
43	28217 19 32 32 10.000038 10.000038 1 70 70 70 4900
44	28236 63 31 438 10.00001 10.000677374829 3 70 70 210 14700
45	28299 104 231 659 10.000339648724 10.001064908644 4 70 70 280 19600
46	28403 16 0 0 0 0 1 54000000 54000000 54000000 2.916e+15
47	28419 9 0 0 0 0 1 0 0 0 0
48	28428 245 0 678 0 10.001065911258 11 0 2 6 8
53	28673 125 397 961 10.000667270307 10.001689019532 5 8 8 40 320
54	28798 185 393 1473 10.000667270307 10.003510719036 7 8 46 246 10708
55	28983 180 393 1473 10.000667270307 10.003510719036 7 1 7 28 140
65	29163 9 0 0 0 0 1 0 0 0 0
67	29172 192 346 1435 10.000657270307 10.003500719036 7 70 108 680 68120
68	29364 104 583 946 10.000938272573 10.001563019532 4 70 70 280 19600
69	29468 131 430 1011 10.000677270307 10.001699019532 5 70 70 350 24500
70	29599 218 255 1435 10.000340003212 10.003500719036 8 70 108 750 73020
71	29817 16 0 0 0 0 1 54000000 54000000 54000000 2.916e+15
72	29833 9 0 0 0 0 1 0 0 0 0
73	29842 669 0 1434 0 10.003500719036 27 0 2 18 26
78	30511 25 386 386 10.000666505316 10.000666505316 1 8 8 8 64
79	30536 282 382 1483 10.000666505316 10.003511435375 11 8 46 278 10964
80	30818 279 382 1483 10.000666505316 10.003511435375 11 1 11 66 506
90	31097 9 0 0 0 0 1 0 0 0 0
92	31106 292 337 1445 10.000656505316 10.003501435375 11 70 108 960 87720
94	31398 26 426 426 10.000676505316 10.000676505316 1 70 70 70 4900
95	31424 318 239 1445 10.000339694664 10.003501435375 12 70 108 1030 92620
96	31742 16 0 0 0 0 1 54000000 54000000 54000000 2.916e+15
97	31758 9 0 0 0 0 1 0 0 0 0
98	31767 613 0 1444 0 10.003501435375 25 0 1 12 12
103	32380 51 88 202 10.000174824362 10.000338824362 2 8 8 16 128
104	32431 155 84 1054 10.000174824362 10.001700410939 6 8 8 48 384
105	32586 155 84 1054 10.000174824362 10.001700410939 6 1 6 21 91
115	32741 10 0 0 0 0 1 0 0 0 0
117	32751 161 50 1003 10.000164824362 10.001690410939 6 70 70 420 29400
118	32912 27 139 139 10.000212824362 10.000212824362 1 70 70 70 4900
119	32939 54 121 288 10.000184824362 10.000348824362 2 70 70 140 9800
120	32993 187 50 1003 10.000164824362 10.001690410939 7 70 70 490 34300
121	33180 17 0 0 0 0 1 54000000 54000000 54000000 2.916e+15
122	33197 10 0 0 0 0 1 0 0 0 0
123	33207 447 0 1002 0 10.001690410939 18 0 2 10 12
128	33654 102 116 616 10.000175434104 10.00106347454 4 8 8 32 256
129	33756 270 112 1488 10.000175434104 10.003511444199 10 8 46 270 10900
130	34026 266 112 1488 10.000175434104 10.003511444199 10 1 10 55 385
140	34292 10 0 0 0 0 1 0 0 0 0
142	34302 278 70 1450 10.000165434104 10.003501444199 10 70 108 890 82820
143	34580 79 148 575 10.000213434104 10.00093747454 3 70 70 210 14700
144	34659 106 137 683 10.000185434104 10.00107347454 4 70 70 280 19600
145	34765 278 70 1450 10.000165434104 10.003501444199 10 70 108 890 82820
146	35043 17 0 0 0 0 1 54000000 54000000 54000000 2.916e+15